<?xml version="1.0" encoding="UTF-8"?>

<!-- generated on 2025-09-25 16:23:35 by Eclipse SUMO sumo Version 1.24.0
<sumoConfiguration xmlns:xsi="http://www.w3.org/2001/XMLSchema-instance" xsi:noNamespaceSchemaLocation="http://sumo.dlr.de/xsd/sumoConfiguration.xsd">

    <input>
        <net-file value="C:\Users\YOGESH\OneDrive\Desktop\TrafficFlowAI\backend\sumo_configs\intersection.net.xml"/>
        <route-files value="C:\Users\YOGESH\OneDrive\Desktop\TrafficFlowAI\backend\sumo_configs\traffic.rou.xml"/>
    </input>

    <output>
        <summary-output value="C:\Users\YOGESH\OneDrive\Desktop\TrafficFlowAI\backend\sumo_configs\summary.xml"/>
        <tripinfo-output value="C:\Users\YOGESH\OneDrive\Desktop\TrafficFlowAI\backend\sumo_configs\tripinfo.xml"/>
    </output>

    <time>
        <begin value="0"/>
        <end value="36000"/>
        <step-length value="1"/>
    </time>

    <processing>
        <max-num-vehicles value="2000"/>
        <time-to-teleport value="300"/>
        <max-depart-delay value="900"/>
    </processing>

    <routing>
        <device.rerouting.probability value="0.1"/>
        <device.rerouting.period value="300"/>
    </routing>

    <report>
        <verbose value="false"/>
        <duration-log.statistics value="true"/>
        <no-step-log value="true"/>
    </report>

    <traci_server>
        <remote-port value="10244"/>
    </traci_server>

    <gui_only>
        <quit-on-end value="true"/>
        <start value="true"/>
    </gui_only>

</sumoConfiguration>
-->

<tripinfos xmlns:xsi="http://www.w3.org/2001/XMLSchema-instance" xsi:noNamespaceSchemaLocation="http://sumo.dlr.de/xsd/tripinfo_file.xsd">
    <tripinfo id="flow_ns_morning.0" depart="0.00" departLane="E1_0" departPos="4.40" departSpeed="0.00" departDelay="0.00" arrival="32.00" arrivalLane="E2_0" arrivalPos="200.00" arrivalSpeed="13.48" duration="32.00" routeLength="395.60" waitingTime="0.00" waitingCount="0" stopTime="0.00" timeLoss="4.52" rerouteNo="0" devices="tripinfo_flow_ns_morning.0" vType="passenger" speedFactor="1.06" vaporized=""/>
    <tripinfo id="flow_ns_morning.1" depart="3.00" departLane="E1_0" departPos="4.40" departSpeed="0.00" departDelay="1.80" arrival="38.00" arrivalLane="E2_0" arrivalPos="200.00" arrivalSpeed="12.87" duration="35.00" routeLength="395.60" waitingTime="0.00" waitingCount="0" stopTime="0.00" timeLoss="3.92" rerouteNo="0" devices="tripinfo_flow_ns_morning.1" vType="passenger" speedFactor="0.94" vaporized=""/>
    <tripinfo id="flow_ns_morning.2" depart="6.00" departLane="E1_0" departPos="4.40" departSpeed="0.00" departDelay="3.60" arrival="58.00" arrivalLane="E2_0" arrivalPos="200.00" arrivalSpeed="13.84" duration="52.00" routeLength="395.60" waitingTime="13.00" waitingCount="1" stopTime="0.00" timeLoss="23.38" rerouteNo="0" devices="tripinfo_flow_ns_morning.2 routing_flow_ns_morning.2" vType="passenger" speedFactor="1.01" vaporized=""/>
    <tripinfo id="flow_ns_morning.3" depart="9.00" departLane="E1_0" departPos="4.40" departSpeed="0.00" departDelay="5.40" arrival="105.00" arrivalLane="E2_0" arrivalPos="200.00" arrivalSpeed="14.17" duration="96.00" routeLength="395.60" waitingTime="54.00" waitingCount="2" stopTime="0.00" timeLoss="68.94" rerouteNo="0" devices="tripinfo_flow_ns_morning.3" vType="passenger" speedFactor="1.08" vaporized=""/>
    <tripinfo id="flow_ns_morning.4" depart="12.00" departLane="E1_0" departPos="4.40" departSpeed="0.00" departDelay="7.20" arrival="107.00" arrivalLane="E2_0" arrivalPos="200.00" arrivalSpeed="13.79" duration="95.00" routeLength="395.60" waitingTime="49.00" waitingCount="2" stopTime="0.00" timeLoss="66.80" rerouteNo="0" devices="tripinfo_flow_ns_morning.4" vType="passenger" speedFactor="1.03" vaporized=""/>
    <tripinfo id="flow_ns_morning.5" depart="15.00" departLane="E1_0" departPos="4.40" departSpeed="0.00" departDelay="9.00" arrival="112.00" arrivalLane="E2_0" arrivalPos="200.00" arrivalSpeed="11.14" duration="97.00" routeLength="395.60" waitingTime="46.00" waitingCount="2" stopTime="0.00" timeLoss="61.88" rerouteNo="0" devices="tripinfo_flow_ns_morning.5 routing_flow_ns_morning.5" vType="passenger" speedFactor="0.83" vaporized=""/>
    <tripinfo id="flow_ns_morning.6" depart="18.00" departLane="E1_0" departPos="4.40" departSpeed="0.00" departDelay="10.80" arrival="113.00" arrivalLane="E2_0" arrivalPos="200.00" arrivalSpeed="12.45" duration="95.00" routeLength="395.60" waitingTime="45.00" waitingCount="2" stopTime="0.00" timeLoss="67.57" rerouteNo="0" devices="tripinfo_flow_ns_morning.6" vType="passenger" speedFactor="1.05" vaporized=""/>
    <tripinfo id="flow_ns_morning.7" depart="20.00" departLane="E1_0" departPos="4.40" departSpeed="0.00" departDelay="11.60" arrival="115.00" arrivalLane="E2_0" arrivalPos="200.00" arrivalSpeed="11.68" duration="95.00" routeLength="395.60" waitingTime="44.00" waitingCount="3" stopTime="0.00" timeLoss="62.41" rerouteNo="0" devices="tripinfo_flow_ns_morning.7" vType="passenger" speedFactor="0.89" vaporized=""/>
    <tripinfo id="flow_ns_morning.8" depart="24.00" departLane="E1_0" departPos="4.40" departSpeed="0.00" departDelay="14.40" arrival="127.00" arrivalLane="E2_0" arrivalPos="200.00" arrivalSpeed="12.46" duration="103.00" routeLength="395.60" waitingTime="47.00" waitingCount="3" stopTime="0.00" timeLoss="71.80" rerouteNo="0" devices="tripinfo_flow_ns_morning.8" vType="passenger" speedFactor="0.94" vaporized=""/>
    <tripinfo id="flow_ns_morning.9" depart="27.00" departLane="E1_0" departPos="4.40" departSpeed="0.00" departDelay="16.20" arrival="130.00" arrivalLane="E2_0" arrivalPos="200.00" arrivalSpeed="11.06" duration="103.00" routeLength="395.60" waitingTime="43.00" waitingCount="2" stopTime="0.00" timeLoss="69.45" rerouteNo="0" devices="tripinfo_flow_ns_morning.9" vType="passenger" speedFactor="0.86" vaporized=""/>
    <tripinfo id="flow_ns_morning.10" depart="30.00" departLane="E1_0" departPos="4.40" departSpeed="0.00" departDelay="18.00" arrival="132.00" arrivalLane="E2_0" arrivalPos="200.00" arrivalSpeed="14.37" duration="102.00" routeLength="395.60" waitingTime="43.00" waitingCount="2" stopTime="0.00" timeLoss="75.21" rerouteNo="0" devices="tripinfo_flow_ns_morning.10 routing_flow_ns_morning.10" vType="passenger" speedFactor="1.09" vaporized=""/>
    <tripinfo id="flow_ns_morning.11" depart="33.00" departLane="E1_0" departPos="4.40" departSpeed="0.00" departDelay="19.80" arrival="133.00" arrivalLane="E2_0" arrivalPos="200.00" arrivalSpeed="14.25" duration="100.00" routeLength="395.60" waitingTime="40.00" waitingCount="2" stopTime="0.00" timeLoss="72.16" rerouteNo="0" devices="tripinfo_flow_ns_morning.11" vType="passenger" speedFactor="1.03" vaporized=""/>
    <tripinfo id="flow_ns_morning.12" depart="36.00" departLane="E1_0" departPos="4.40" departSpeed="0.00" departDelay="21.60" arrival="135.00" arrivalLane="E2_0" arrivalPos="200.00" arrivalSpeed="13.30" duration="99.00" routeLength="395.60" waitingTime="41.00" waitingCount="2" stopTime="0.00" timeLoss="71.41" rerouteNo="0" devices="tripinfo_flow_ns_morning.12" vType="passenger" speedFactor="1.05" vaporized=""/>
    <tripinfo id="flow_ns_morning.13" depart="39.00" departLane="E1_0" departPos="4.40" departSpeed="0.00" departDelay="23.40" arrival="153.00" arrivalLane="E2_0" arrivalPos="200.00" arrivalSpeed="15.12" duration="114.00" routeLength="395.60" waitingTime="54.00" waitingCount="4" stopTime="0.00" timeLoss="88.11" rerouteNo="0" devices="tripinfo_flow_ns_morning.13" vType="passenger" speedFactor="1.12" vaporized=""/>
    <tripinfo id="flow_ns_morning.14" depart="42.00" departLane="E1_0" departPos="4.40" departSpeed="0.00" departDelay="25.20" arrival="156.00" arrivalLane="E2_0" arrivalPos="200.00" arrivalSpeed="13.28" duration="114.00" routeLength="395.60" waitingTime="51.00" waitingCount="3" stopTime="0.00" timeLoss="84.80" rerouteNo="0" devices="tripinfo_flow_ns_morning.14" vType="passenger" speedFactor="0.99" vaporized=""/>
    <tripinfo id="flow_ns_morning.15" depart="45.00" departLane="E1_0" departPos="4.40" departSpeed="0.00" departDelay="27.00" arrival="172.00" arrivalLane="E2_0" arrivalPos="200.00" arrivalSpeed="12.19" duration="127.00" routeLength="395.60" waitingTime="59.00" waitingCount="4" stopTime="0.00" timeLoss="95.49" rerouteNo="0" devices="tripinfo_flow_ns_morning.15" vType="passenger" speedFactor="0.93" vaporized=""/>
    <tripinfo id="flow_ns_morning.16" depart="48.00" departLane="E1_0" departPos="4.40" departSpeed="0.00" departDelay="28.80" arrival="175.00" arrivalLane="E2_0" arrivalPos="200.00" arrivalSpeed="11.26" duration="127.00" routeLength="395.60" waitingTime="57.00" waitingCount="4" stopTime="0.00" timeLoss="93.78" rerouteNo="0" devices="tripinfo_flow_ns_morning.16 routing_flow_ns_morning.16" vType="passenger" speedFactor="0.88" vaporized=""/>
    <tripinfo id="flow_ns_morning.17" depart="51.00" departLane="E1_0" departPos="4.40" departSpeed="0.00" departDelay="30.60" arrival="176.00" arrivalLane="E2_0" arrivalPos="200.00" arrivalSpeed="12.46" duration="125.00" routeLength="395.60" waitingTime="53.00" waitingCount="4" stopTime="0.00" timeLoss="94.58" rerouteNo="0" devices="tripinfo_flow_ns_morning.17" vType="passenger" speedFactor="0.94" vaporized=""/>
    <tripinfo id="flow_ns_morning.18" depart="54.00" departLane="E1_0" departPos="4.40" departSpeed="0.00" departDelay="32.40" arrival="178.00" arrivalLane="E2_0" arrivalPos="200.00" arrivalSpeed="12.10" duration="124.00" routeLength="395.60" waitingTime="54.00" waitingCount="4" stopTime="0.00" timeLoss="93.16" rerouteNo="0" devices="tripinfo_flow_ns_morning.18" vType="passenger" speedFactor="0.94" vaporized=""/>
    <tripinfo id="flow_ns_morning.19" depart="56.00" departLane="E1_0" departPos="4.40" departSpeed="0.00" departDelay="33.20" arrival="180.00" arrivalLane="E2_0" arrivalPos="200.00" arrivalSpeed="15.70" duration="124.00" routeLength="395.60" waitingTime="51.00" waitingCount="3" stopTime="0.00" timeLoss="98.46" rerouteNo="0" devices="tripinfo_flow_ns_morning.19" vType="passenger" speedFactor="1.16" vaporized=""/>
    <tripinfo id="flow_ns_morning.20" depart="59.00" departLane="E1_0" departPos="4.40" departSpeed="0.00" departDelay="35.00" arrival="205.00" arrivalLane="E2_0" arrivalPos="200.00" arrivalSpeed="14.11" duration="146.00" routeLength="395.60" waitingTime="70.00" waitingCount="4" stopTime="0.00" timeLoss="117.93" rerouteNo="0" devices="tripinfo_flow_ns_morning.20 routing_flow_ns_morning.20" vType="passenger" speedFactor="1.02" vaporized=""/>
    <tripinfo id="flow_ns_morning.21" depart="62.00" departLane="E1_0" departPos="4.40" departSpeed="0.00" departDelay="36.80" arrival="208.00" arrivalLane="E2_0" arrivalPos="200.00" arrivalSpeed="12.93" duration="146.00" routeLength="395.60" waitingTime="64.00" waitingCount="4" stopTime="0.00" timeLoss="117.03" rerouteNo="0" devices="tripinfo_flow_ns_morning.21" vType="passenger" speedFactor="1.01" vaporized=""/>
    <tripinfo id="flow_ns_morning.22" depart="65.00" departLane="E1_0" departPos="4.40" departSpeed="0.00" departDelay="38.60" arrival="210.00" arrivalLane="E2_0" arrivalPos="200.00" arrivalSpeed="12.98" duration="145.00" routeLength="395.60" waitingTime="63.00" waitingCount="4" stopTime="0.00" timeLoss="115.03" rerouteNo="0" devices="tripinfo_flow_ns_morning.22" vType="passenger" speedFactor="0.97" vaporized=""/>
    <tripinfo id="flow_ns_morning.23" depart="67.00" departLane="E1_0" departPos="4.40" departSpeed="0.00" departDelay="39.40" arrival="213.00" arrivalLane="E2_0" arrivalPos="200.00" arrivalSpeed="11.90" duration="146.00" routeLength="395.60" waitingTime="62.00" waitingCount="5" stopTime="0.00" timeLoss="113.76" rerouteNo="0" devices="tripinfo_flow_ns_morning.23" vType="passenger" speedFactor="0.89" vaporized=""/>
    <tripinfo id="flow_ns_morning.24" depart="71.00" departLane="E1_0" departPos="4.40" departSpeed="0.00" departDelay="42.20" arrival="216.00" arrivalLane="E2_0" arrivalPos="200.00" arrivalSpeed="10.66" duration="145.00" routeLength="395.60" waitingTime="58.00" waitingCount="5" stopTime="0.00" timeLoss="110.24" rerouteNo="0" devices="tripinfo_flow_ns_morning.24" vType="passenger" speedFactor="0.83" vaporized=""/>
    <tripinfo id="flow_ns_morning.25" depart="74.00" departLane="E1_0" departPos="4.40" departSpeed="0.00" departDelay="44.00" arrival="218.00" arrivalLane="E2_0" arrivalPos="200.00" arrivalSpeed="12.08" duration="144.00" routeLength="395.60" waitingTime="56.00" waitingCount="6" stopTime="0.00" timeLoss="110.73" rerouteNo="0" devices="tripinfo_flow_ns_morning.25" vType="passenger" speedFactor="0.87" vaporized=""/>
    <tripinfo id="flow_ns_morning.26" depart="76.00" departLane="E1_0" departPos="4.40" departSpeed="0.00" departDelay="44.80" arrival="220.00" arrivalLane="E2_0" arrivalPos="200.00" arrivalSpeed="12.51" duration="144.00" routeLength="395.60" waitingTime="52.00" waitingCount="6" stopTime="0.00" timeLoss="112.03" rerouteNo="0" devices="tripinfo_flow_ns_morning.26" vType="passenger" speedFactor="0.92" vaporized=""/>
    <tripinfo id="flow_ns_morning.27" depart="80.00" departLane="E1_0" departPos="4.40" departSpeed="0.00" departDelay="47.60" arrival="221.00" arrivalLane="E2_0" arrivalPos="200.00" arrivalSpeed="12.10" duration="141.00" routeLength="395.60" waitingTime="50.00" waitingCount="4" stopTime="0.00" timeLoss="110.83" rerouteNo="0" devices="tripinfo_flow_ns_morning.27" vType="passenger" speedFactor="0.95" vaporized=""/>
    <tripinfo id="flow_ns_morning.28" depart="82.00" departLane="E1_0" departPos="4.40" departSpeed="0.00" departDelay="48.40" arrival="223.00" arrivalLane="E2_0" arrivalPos="200.00" arrivalSpeed="14.44" duration="141.00" routeLength="395.60" waitingTime="49.00" waitingCount="4" stopTime="0.00" timeLoss="115.19" rerouteNo="0" devices="tripinfo_flow_ns_morning.28" vType="passenger" speedFactor="1.13" vaporized=""/>
    <tripinfo id="flow_ns_morning.29" depart="86.00" departLane="E1_0" departPos="4.40" departSpeed="0.00" departDelay="51.20" arrival="239.00" arrivalLane="E2_0" arrivalPos="200.00" arrivalSpeed="12.43" duration="153.00" routeLength="395.60" waitingTime="57.00" waitingCount="5" stopTime="0.00" timeLoss="122.13" rerouteNo="0" devices="tripinfo_flow_ns_morning.29" vType="passenger" speedFactor="0.93" vaporized=""/>
    <tripinfo id="flow_ns_morning.30" depart="89.00" departLane="E1_0" departPos="4.40" departSpeed="0.00" departDelay="53.00" arrival="241.00" arrivalLane="E2_0" arrivalPos="200.00" arrivalSpeed="15.94" duration="152.00" routeLength="395.60" waitingTime="54.00" waitingCount="5" stopTime="0.00" timeLoss="127.04" rerouteNo="0" devices="tripinfo_flow_ns_morning.30 routing_flow_ns_morning.30" vType="passenger" speedFactor="1.18" vaporized=""/>
    <tripinfo id="flow_ns_morning.31" depart="92.00" departLane="E1_0" departPos="4.40" departSpeed="0.00" departDelay="54.80" arrival="273.00" arrivalLane="E2_0" arrivalPos="200.00" arrivalSpeed="15.01" duration="181.00" routeLength="395.60" waitingTime="81.00" waitingCount="6" stopTime="0.00" timeLoss="155.41" rerouteNo="0" devices="tripinfo_flow_ns_morning.31" vType="passenger" speedFactor="1.15" vaporized=""/>
    <tripinfo id="flow_ns_morning.32" depart="122.00" departLane="E1_0" departPos="4.40" departSpeed="0.00" departDelay="83.60" arrival="305.00" arrivalLane="E2_0" arrivalPos="200.00" arrivalSpeed="13.91" duration="183.00" routeLength="395.60" waitingTime="82.00" waitingCount="6" stopTime="0.00" timeLoss="154.43" rerouteNo="0" devices="tripinfo_flow_ns_morning.32" vType="passenger" speedFactor="1.01" vaporized=""/>
    <tripinfo id="flow_ns_morning.33" depart="125.00" departLane="E1_0" departPos="4.40" departSpeed="0.00" departDelay="85.40" arrival="316.00" arrivalLane="E2_0" arrivalPos="200.00" arrivalSpeed="16.05" duration="191.00" routeLength="395.60" waitingTime="87.00" waitingCount="7" stopTime="0.00" timeLoss="166.59" rerouteNo="0" devices="tripinfo_flow_ns_morning.33" vType="passenger" speedFactor="1.17" vaporized=""/>
    <tripinfo id="flow_ns_morning.34" depart="129.00" departLane="E1_0" departPos="4.40" departSpeed="0.00" departDelay="88.20" arrival="320.00" arrivalLane="E2_0" arrivalPos="200.00" arrivalSpeed="13.26" duration="191.00" routeLength="395.60" waitingTime="81.00" waitingCount="7" stopTime="0.00" timeLoss="161.62" rerouteNo="0" devices="tripinfo_flow_ns_morning.34" vType="passenger" speedFactor="0.99" vaporized=""/>
    <tripinfo id="flow_ns_morning.35" depart="132.00" departLane="E1_0" departPos="4.40" departSpeed="0.00" departDelay="90.00" arrival="321.00" arrivalLane="E2_0" arrivalPos="200.00" arrivalSpeed="13.08" duration="189.00" routeLength="395.60" waitingTime="78.00" waitingCount="6" stopTime="0.00" timeLoss="161.06" rerouteNo="0" devices="tripinfo_flow_ns_morning.35 routing_flow_ns_morning.35" vType="passenger" speedFactor="1.02" vaporized=""/>
    <tripinfo id="flow_ns_morning.36" depart="135.00" departLane="E1_0" departPos="4.40" departSpeed="0.00" departDelay="91.80" arrival="324.00" arrivalLane="E2_0" arrivalPos="200.00" arrivalSpeed="12.22" duration="189.00" routeLength="395.60" waitingTime="77.00" waitingCount="6" stopTime="0.00" timeLoss="158.98" rerouteNo="0" devices="tripinfo_flow_ns_morning.36" vType="passenger" speedFactor="0.97" vaporized=""/>
    <tripinfo id="flow_ns_morning.37" depart="141.00" departLane="E1_0" departPos="4.40" departSpeed="0.00" departDelay="96.60" arrival="325.00" arrivalLane="E2_0" arrivalPos="200.00" arrivalSpeed="15.04" duration="184.00" routeLength="395.60" waitingTime="73.00" waitingCount="7" stopTime="0.00" timeLoss="159.65" rerouteNo="0" devices="tripinfo_flow_ns_morning.37" vType="passenger" speedFactor="1.18" vaporized=""/>
    <tripinfo id="flow_ns_morning.38" depart="145.00" departLane="E1_0" departPos="4.40" departSpeed="0.00" departDelay="99.40" arrival="327.00" arrivalLane="E2_0" arrivalPos="200.00" arrivalSpeed="15.27" duration="182.00" routeLength="395.60" waitingTime="70.00" waitingCount="7" stopTime="0.00" timeLoss="155.53" rerouteNo="0" devices="tripinfo_flow_ns_morning.38" vType="passenger" speedFactor="1.10" vaporized=""/>
    <tripinfo id="flow_ns_morning.39" depart="148.00" departLane="E1_0" departPos="4.40" departSpeed="0.00" departDelay="101.20" arrival="330.00" arrivalLane="E2_0" arrivalPos="200.00" arrivalSpeed="11.84" duration="182.00" routeLength="395.60" waitingTime="71.00" waitingCount="6" stopTime="0.00" timeLoss="149.81" rerouteNo="0" devices="tripinfo_flow_ns_morning.39" vType="passenger" speedFactor="0.90" vaporized=""/>
    <tripinfo id="flow_ns_morning.40" depart="151.00" departLane="E1_0" departPos="4.40" departSpeed="0.00" departDelay="103.00" arrival="331.00" arrivalLane="E2_0" arrivalPos="200.00" arrivalSpeed="13.54" duration="180.00" routeLength="395.60" waitingTime="65.00" waitingCount="6" stopTime="0.00" timeLoss="152.34" rerouteNo="0" devices="tripinfo_flow_ns_morning.40" vType="passenger" speedFactor="1.03" vaporized=""/>
    <tripinfo id="flow_ns_morning.41" depart="157.00" departLane="E1_0" departPos="4.40" departSpeed="0.00" departDelay="107.80" arrival="333.00" arrivalLane="E2_0" arrivalPos="200.00" arrivalSpeed="13.07" duration="176.00" routeLength="395.60" waitingTime="63.00" waitingCount="6" stopTime="0.00" timeLoss="145.96" rerouteNo="0" devices="tripinfo_flow_ns_morning.41" vType="passenger" speedFactor="0.96" vaporized=""/>
    <tripinfo id="flow_ns_morning.42" depart="171.00" departLane="E1_0" departPos="4.40" departSpeed="0.00" departDelay="120.60" arrival="335.00" arrivalLane="E2_0" arrivalPos="200.00" arrivalSpeed="13.97" duration="164.00" routeLength="395.60" waitingTime="61.00" waitingCount="5" stopTime="0.00" timeLoss="137.18" rerouteNo="0" devices="tripinfo_flow_ns_morning.42" vType="passenger" speedFactor="1.09" vaporized=""/>
    <tripinfo id="flow_ns_morning.43" depart="177.00" departLane="E1_0" departPos="4.40" departSpeed="0.00" departDelay="125.40" arrival="336.00" arrivalLane="E2_0" arrivalPos="200.00" arrivalSpeed="14.34" duration="159.00" routeLength="395.60" waitingTime="60.00" waitingCount="6" stopTime="0.00" timeLoss="131.45" rerouteNo="0" devices="tripinfo_flow_ns_morning.43" vType="passenger" speedFactor="1.04" vaporized=""/>
    <tripinfo id="flow_ns_morning.44" depart="188.00" departLane="E1_0" departPos="4.40" departSpeed="0.00" departDelay="135.20" arrival="338.00" arrivalLane="E2_0" arrivalPos="200.00" arrivalSpeed="13.70" duration="150.00" routeLength="395.60" waitingTime="56.00" waitingCount="6" stopTime="0.00" timeLoss="122.21" rerouteNo="0" devices="tripinfo_flow_ns_morning.44" vType="passenger" speedFactor="1.04" vaporized=""/>
    <tripinfo id="flow_ns_morning.45" depart="192.00" departLane="E1_0" departPos="4.40" departSpeed="0.00" departDelay="138.00" arrival="340.00" arrivalLane="E2_0" arrivalPos="200.00" arrivalSpeed="14.61" duration="148.00" routeLength="395.60" waitingTime="55.00" waitingCount="5" stopTime="0.00" timeLoss="120.93" rerouteNo="0" devices="tripinfo_flow_ns_morning.45" vType="passenger" speedFactor="1.09" vaporized=""/>
    <tripinfo id="flow_ns_morning.46" depart="195.00" departLane="E1_0" departPos="4.40" departSpeed="0.00" departDelay="139.80" arrival="342.00" arrivalLane="E2_0" arrivalPos="200.00" arrivalSpeed="13.54" duration="147.00" routeLength="395.60" waitingTime="54.00" waitingCount="4" stopTime="0.00" timeLoss="117.49" rerouteNo="0" devices="tripinfo_flow_ns_morning.46" vType="passenger" speedFactor="1.00" vaporized=""/>
    <tripinfo id="flow_ns_morning.47" depart="198.00" departLane="E1_0" departPos="4.40" departSpeed="0.00" departDelay="141.60" arrival="344.00" arrivalLane="E2_0" arrivalPos="200.00" arrivalSpeed="12.47" duration="146.00" routeLength="395.60" waitingTime="50.00" waitingCount="4" stopTime="0.00" timeLoss="114.00" rerouteNo="0" devices="tripinfo_flow_ns_morning.47" vType="passenger" speedFactor="0.90" vaporized=""/>
    <tripinfo id="flow_ns_morning.48" depart="202.00" departLane="E1_0" departPos="4.40" departSpeed="0.00" departDelay="144.40" arrival="347.00" arrivalLane="E2_0" arrivalPos="200.00" arrivalSpeed="11.72" duration="145.00" routeLength="395.60" waitingTime="52.00" waitingCount="4" stopTime="0.00" timeLoss="111.68" rerouteNo="0" devices="tripinfo_flow_ns_morning.48 routing_flow_ns_morning.48" vType="passenger" speedFactor="0.88" vaporized=""/>
    <tripinfo id="flow_ns_morning.49" depart="224.00" departLane="E1_0" departPos="4.40" departSpeed="0.00" departDelay="165.20" arrival="349.00" arrivalLane="E2_0" arrivalPos="200.00" arrivalSpeed="11.16" duration="125.00" routeLength="395.60" waitingTime="41.00" waitingCount="4" stopTime="0.00" timeLoss="91.28" rerouteNo="0" devices="tripinfo_flow_ns_morning.49" vType="passenger" speedFactor="0.85" vaporized=""/>
    <tripinfo id="flow_ns_morning.50" depart="227.00" departLane="E1_0" departPos="4.40" departSpeed="0.00" departDelay="167.00" arrival="352.00" arrivalLane="E2_0" arrivalPos="200.00" arrivalSpeed="10.99" duration="125.00" routeLength="395.60" waitingTime="39.00" waitingCount="3" stopTime="0.00" timeLoss="90.81" rerouteNo="0" devices="tripinfo_flow_ns_morning.50" vType="passenger" speedFactor="0.85" vaporized=""/>
    <tripinfo id="flow_ns_morning.51" depart="231.00" departLane="E1_0" departPos="4.40" departSpeed="0.00" departDelay="169.80" arrival="353.00" arrivalLane="E2_0" arrivalPos="200.00" arrivalSpeed="14.28" duration="122.00" routeLength="395.60" waitingTime="38.00" waitingCount="2" stopTime="0.00" timeLoss="97.32" rerouteNo="0" devices="tripinfo_flow_ns_morning.51" vType="passenger" speedFactor="1.17" vaporized=""/>
    <tripinfo id="flow_ns_morning.52" depart="234.00" departLane="E1_0" departPos="4.40" departSpeed="0.00" departDelay="171.60" arrival="355.00" arrivalLane="E2_0" arrivalPos="200.00" arrivalSpeed="12.99" duration="121.00" routeLength="395.60" waitingTime="39.00" waitingCount="2" stopTime="0.00" timeLoss="92.39" rerouteNo="0" devices="tripinfo_flow_ns_morning.52" vType="passenger" speedFactor="1.02" vaporized=""/>
    <tripinfo id="flow_ns_morning.53" depart="237.00" departLane="E1_0" departPos="4.40" departSpeed="0.00" departDelay="173.40" arrival="356.00" arrivalLane="E2_0" arrivalPos="200.00" arrivalSpeed="15.19" duration="119.00" routeLength="395.60" waitingTime="40.00" waitingCount="2" stopTime="0.00" timeLoss="92.90" rerouteNo="0" devices="tripinfo_flow_ns_morning.53" vType="passenger" speedFactor="1.10" vaporized=""/>
    <tripinfo id="flow_ns_morning.54" depart="240.00" departLane="E1_0" departPos="4.40" departSpeed="0.00" departDelay="175.20" arrival="358.00" arrivalLane="E2_0" arrivalPos="200.00" arrivalSpeed="13.10" duration="118.00" routeLength="395.60" waitingTime="37.00" waitingCount="3" stopTime="0.00" timeLoss="89.46" rerouteNo="0" devices="tripinfo_flow_ns_morning.54" vType="passenger" speedFactor="1.00" vaporized=""/>
    <tripinfo id="flow_ns_morning.55" depart="243.00" departLane="E1_0" departPos="4.40" departSpeed="0.00" departDelay="177.00" arrival="360.00" arrivalLane="E2_0" arrivalPos="200.00" arrivalSpeed="13.11" duration="117.00" routeLength="395.60" waitingTime="36.00" waitingCount="3" stopTime="0.00" timeLoss="87.95" rerouteNo="0" devices="tripinfo_flow_ns_morning.55" vType="passenger" speedFactor="1.00" vaporized=""/>
    <tripinfo id="flow_ns_morning.56" depart="246.00" departLane="E1_0" departPos="4.40" departSpeed="0.00" departDelay="178.80" arrival="362.00" arrivalLane="E2_0" arrivalPos="200.00" arrivalSpeed="11.56" duration="116.00" routeLength="395.60" waitingTime="34.00" waitingCount="2" stopTime="0.00" timeLoss="83.92" rerouteNo="0" devices="tripinfo_flow_ns_morning.56" vType="passenger" speedFactor="0.90" vaporized=""/>
    <tripinfo id="flow_ns_morning.57" depart="249.00" departLane="E1_0" departPos="4.40" departSpeed="0.00" departDelay="180.60" arrival="364.00" arrivalLane="E2_0" arrivalPos="200.00" arrivalSpeed="14.83" duration="115.00" routeLength="395.60" waitingTime="35.00" waitingCount="2" stopTime="0.00" timeLoss="89.27" rerouteNo="0" devices="tripinfo_flow_ns_morning.57" vType="passenger" speedFactor="1.14" vaporized=""/>
    <tripinfo id="flow_ns_morning.58" depart="256.00" departLane="E1_0" departPos="4.40" departSpeed="0.00" departDelay="186.40" arrival="365.00" arrivalLane="E2_0" arrivalPos="200.00" arrivalSpeed="14.05" duration="109.00" routeLength="395.60" waitingTime="34.00" waitingCount="3" stopTime="0.00" timeLoss="81.02" rerouteNo="0" devices="tripinfo_flow_ns_morning.58" vType="passenger" speedFactor="1.02" vaporized=""/>
    <tripinfo id="flow_ns_morning.59" depart="261.00" departLane="E1_0" departPos="4.40" departSpeed="0.00" departDelay="190.20" arrival="367.00" arrivalLane="E2_0" arrivalPos="200.00" arrivalSpeed="12.87" duration="106.00" routeLength="395.60" waitingTime="34.00" waitingCount="2" stopTime="0.00" timeLoss="76.21" rerouteNo="0" devices="tripinfo_flow_ns_morning.59" vType="passenger" speedFactor="0.97" vaporized=""/>
    <tripinfo id="flow_ns_morning.60" depart="294.00" departLane="E1_0" departPos="4.40" departSpeed="0.00" departDelay="222.00" arrival="369.00" arrivalLane="E2_0" arrivalPos="200.00" arrivalSpeed="15.01" duration="75.00" routeLength="395.60" waitingTime="16.00" waitingCount="1" stopTime="0.00" timeLoss="47.86" rerouteNo="0" devices="tripinfo_flow_ns_morning.60" vType="passenger" speedFactor="1.08" vaporized=""/>
    <tripinfo id="flow_ns_morning.61" depart="325.00" departLane="E1_0" departPos="4.40" departSpeed="0.00" departDelay="251.80" arrival="370.00" arrivalLane="E2_0" arrivalPos="200.00" arrivalSpeed="14.39" duration="45.00" routeLength="395.60" waitingTime="0.00" waitingCount="0" stopTime="0.00" timeLoss="19.31" rerouteNo="0" devices="tripinfo_flow_ns_morning.61" vType="passenger" speedFactor="1.12" vaporized=""/>
    <tripinfo id="flow_ns_morning.62" depart="335.00" departLane="E1_0" departPos="4.40" departSpeed="0.00" departDelay="260.60" arrival="372.00" arrivalLane="E2_0" arrivalPos="200.00" arrivalSpeed="13.27" duration="37.00" routeLength="395.60" waitingTime="0.00" waitingCount="0" stopTime="0.00" timeLoss="8.44" rerouteNo="0" devices="tripinfo_flow_ns_morning.62" vType="passenger" speedFactor="1.02" vaporized=""/>
    <tripinfo id="flow_ns_morning.63" depart="338.00" departLane="E1_0" departPos="4.40" departSpeed="0.00" departDelay="262.40" arrival="396.00" arrivalLane="E2_0" arrivalPos="200.00" arrivalSpeed="13.39" duration="58.00" routeLength="395.60" waitingTime="18.00" waitingCount="1" stopTime="0.00" timeLoss="29.04" rerouteNo="0" devices="tripinfo_flow_ns_morning.63 routing_flow_ns_morning.63" vType="passenger" speedFactor="0.99" vaporized=""/>
    <tripinfo id="flow_ns_morning.64" depart="341.00" departLane="E1_0" departPos="4.40" departSpeed="0.00" departDelay="264.20" arrival="399.00" arrivalLane="E2_0" arrivalPos="200.00" arrivalSpeed="11.74" duration="58.00" routeLength="395.60" waitingTime="17.00" waitingCount="1" stopTime="0.00" timeLoss="26.91" rerouteNo="0" devices="tripinfo_flow_ns_morning.64" vType="passenger" speedFactor="0.94" vaporized=""/>
    <tripinfo id="flow_ns_morning.65" depart="344.00" departLane="E1_0" departPos="4.40" departSpeed="0.00" departDelay="266.00" arrival="402.00" arrivalLane="E2_0" arrivalPos="200.00" arrivalSpeed="12.20" duration="58.00" routeLength="395.60" waitingTime="14.00" waitingCount="1" stopTime="0.00" timeLoss="24.85" rerouteNo="0" devices="tripinfo_flow_ns_morning.65" vType="passenger" speedFactor="0.88" vaporized=""/>
    <tripinfo id="flow_ns_morning.66" depart="347.00" departLane="E1_0" departPos="4.40" departSpeed="0.00" departDelay="267.80" arrival="403.00" arrivalLane="E2_0" arrivalPos="200.00" arrivalSpeed="11.79" duration="56.00" routeLength="395.60" waitingTime="13.00" waitingCount="1" stopTime="0.00" timeLoss="24.44" rerouteNo="0" devices="tripinfo_flow_ns_morning.66" vType="passenger" speedFactor="0.91" vaporized=""/>